 #Rocksalt MgO oriented X=[100] Y=[010] Z=[001].
 
       46656  atoms
           2  atom types
 
      0.00000000      75.92738400  xlo xhi
      0.00000000      75.92738400  ylo yhi
      0.10000000      76.02738400  zlo zhi
 
Atoms
 
1    1    0.0    0.00000000    0.00000000    0.10000000
2    1    0.0    2.10909400    2.10909400    0.10000000
3    1    0.0    0.00000000    2.10909400    2.20909400
4    1    0.0    2.10909400    0.00000000    2.20909400
5    2    0.0    2.10909400    0.00000000    0.10000000
6    2    0.0    0.00000000    2.10909400    0.10000000
7    2    0.0    0.00000000    0.00000000    2.20909400
8    2    0.0    2.10909400    2.10909400    2.20909400
9    1    0.0    4.21818800    0.00000000    0.10000000
10    1    0.0    6.32728200    2.10909400    0.10000000
11    1    0.0    4.21818800    2.10909400    2.20909400
12    1    0.0    6.32728200    0.00000000    2.20909400
13    2    0.0    6.32728200    0.00000000    0.10000000
14    2    0.0    4.21818800    2.10909400    0.10000000
15    2    0.0    4.21818800    0.00000000    2.20909400
16    2    0.0    6.32728200    2.10909400    2.20909400
17    1    0.0    8.43637600    0.00000000    0.10000000
18    1    0.0    10.54547000    2.10909400    0.10000000
19    1    0.0    8.43637600    2.10909400    2.20909400
20    1    0.0    10.54547000    0.00000000    2.20909400
21    2    0.0    10.54547000    0.00000000    0.10000000
22    2    0.0    8.43637600    2.10909400    0.10000000
23    2    0.0    8.43637600    0.00000000    2.20909400
24    2    0.0    10.54547000    2.10909400    2.20909400
25    1    0.0    12.65456400    0.00000000    0.10000000
26    1    0.0    14.76365800    2.10909400    0.10000000
27    1    0.0    12.65456400    2.10909400    2.20909400
28    1    0.0    14.76365800    0.00000000    2.20909400
29    2    0.0    14.76365800    0.00000000    0.10000000
30    2    0.0    12.65456400    2.10909400    0.10000000
31    2    0.0    12.65456400    0.00000000    2.20909400
32    2    0.0    14.76365800    2.10909400    2.20909400
33    1    0.0    16.87275200    0.00000000    0.10000000
34    1    0.0    18.98184600    2.10909400    0.10000000
35    1    0.0    16.87275200    2.10909400    2.20909400
36    1    0.0    18.98184600    0.00000000    2.20909400
37    2    0.0    18.98184600    0.00000000    0.10000000
38    2    0.0    16.87275200    2.10909400    0.10000000
39    2    0.0    16.87275200    0.00000000    2.20909400
40    2    0.0    18.98184600    2.10909400    2.20909400
41    1    0.0    21.09094000    0.00000000    0.10000000
42    1    0.0    23.20003400    2.10909400    0.10000000
43    1    0.0    21.09094000    2.10909400    2.20909400
44    1    0.0    23.20003400    0.00000000    2.20909400
45    2    0.0    23.20003400    0.00000000    0.10000000
46    2    0.0    21.09094000    2.10909400    0.10000000
47    2    0.0    21.09094000    0.00000000    2.20909400
48    2    0.0    23.20003400    2.10909400    2.20909400
49    1    0.0    25.30912800    0.00000000    0.10000000
50    1    0.0    27.41822200    2.10909400    0.10000000
51    1    0.0    25.30912800    2.10909400    2.20909400
52    1    0.0    27.41822200    0.00000000    2.20909400
53    2    0.0    27.41822200    0.00000000    0.10000000
54    2    0.0    25.30912800    2.10909400    0.10000000
55    2    0.0    25.30912800    0.00000000    2.20909400
56    2    0.0    27.41822200    2.10909400    2.20909400
57    1    0.0    29.52731600    0.00000000    0.10000000
58    1    0.0    31.63641000    2.10909400    0.10000000
59    1    0.0    29.52731600    2.10909400    2.20909400
60    1    0.0    31.63641000    0.00000000    2.20909400
61    2    0.0    31.63641000    0.00000000    0.10000000
62    2    0.0    29.52731600    2.10909400    0.10000000
63    2    0.0    29.52731600    0.00000000    2.20909400
64    2    0.0    31.63641000    2.10909400    2.20909400
65    1    0.0    33.74550400    0.00000000    0.10000000
66    1    0.0    35.85459800    2.10909400    0.10000000
67    1    0.0    33.74550400    2.10909400    2.20909400
68    1    0.0    35.85459800    0.00000000    2.20909400
69    2    0.0    35.85459800    0.00000000    0.10000000
70    2    0.0    33.74550400    2.10909400    0.10000000
71    2    0.0    33.74550400    0.00000000    2.20909400
72    2    0.0    35.85459800    2.10909400    2.20909400
73    1    0.0    37.96369200    0.00000000    0.10000000
74    1    0.0    40.07278600    2.10909400    0.10000000
75    1    0.0    37.96369200    2.10909400    2.20909400
76    1    0.0    40.07278600    0.00000000    2.20909400
77    2    0.0    40.07278600    0.00000000    0.10000000
78    2    0.0    37.96369200    2.10909400    0.10000000
79    2    0.0    37.96369200    0.00000000    2.20909400
80    2    0.0    40.07278600    2.10909400    2.20909400
81    1    0.0    42.18188000    0.00000000    0.10000000
82    1    0.0    44.29097400    2.10909400    0.10000000
83    1    0.0    42.18188000    2.10909400    2.20909400
84    1    0.0    44.29097400    0.00000000    2.20909400
85    2    0.0    44.29097400    0.00000000    0.10000000
86    2    0.0    42.18188000    2.10909400    0.10000000
87    2    0.0    42.18188000    0.00000000    2.20909400
88    2    0.0    44.29097400    2.10909400    2.20909400
89    1    0.0    46.40006800    0.00000000    0.10000000
90    1    0.0    48.50916200    2.10909400    0.10000000
91    1    0.0    46.40006800    2.10909400    2.20909400
92    1    0.0    48.50916200    0.00000000    2.20909400
93    2    0.0    48.50916200    0.00000000    0.10000000
94    2    0.0    46.40006800    2.10909400    0.10000000
95    2    0.0    46.40006800    0.00000000    2.20909400
96    2    0.0    48.50916200    2.10909400    2.20909400
97    1    0.0    50.61825600    0.00000000    0.10000000
98    1    0.0    52.72735000    2.10909400    0.10000000
99    1    0.0    50.61825600    2.10909400    2.20909400
100    1    0.0    52.72735000    0.00000000    2.20909400
101    2    0.0    52.72735000    0.00000000    0.10000000
102    2    0.0    50.61825600    2.10909400    0.10000000
103    2    0.0    50.61825600    0.00000000    2.20909400
104    2    0.0    52.72735000    2.10909400    2.20909400
105    1    0.0    54.83644400    0.00000000    0.10000000
106    1    0.0    56.94553800    2.10909400    0.10000000
107    1    0.0    54.83644400    2.10909400    2.20909400
108    1    0.0    56.94553800    0.00000000    2.20909400
109    2    0.0    56.94553800    0.00000000    0.10000000
110    2    0.0    54.83644400    2.10909400    0.10000000
111    2    0.0    54.83644400    0.00000000    2.20909400
112    2    0.0    56.94553800    2.10909400    2.20909400
113    1    0.0    59.05463200    0.00000000    0.10000000
114    1    0.0    61.16372600    2.10909400    0.10000000
115    1    0.0    59.05463200    2.10909400    2.20909400
116    1    0.0    61.16372600    0.00000000    2.20909400
117    2    0.0    61.16372600    0.00000000    0.10000000
118    2    0.0    59.05463200    2.10909400    0.10000000
119    2    0.0    59.05463200    0.00000000    2.20909400
120    2    0.0    61.16372600    2.10909400    2.20909400
121    1    0.0    63.27282000    0.00000000    0.10000000
122    1    0.0    65.38191400    2.10909400    0.10000000
123    1    0.0    63.27282000    2.10909400    2.20909400
124    1    0.0    65.38191400    0.00000000    2.20909400
125    2    0.0    65.38191400    0.00000000    0.10000000
126    2    0.0    63.27282000    2.10909400    0.10000000
127    2    0.0    63.27282000    0.00000000    2.20909400
128    2    0.0    65.38191400    2.10909400    2.20909400
129    1    0.0    67.49100800    0.00000000    0.10000000
130    1    0.0    69.60010200    2.10909400    0.10000000
131    1    0.0    67.49100800    2.10909400    2.20909400
132    1    0.0    69.60010200    0.00000000    2.20909400
133    2    0.0    69.60010200    0.00000000    0.10000000
134    2    0.0    67.49100800    2.10909400    0.10000000
135    2    0.0    67.49100800    0.00000000    2.20909400
136    2    0.0    69.60010200    2.10909400    2.20909400
137    1    0.0    71.70919600    0.00000000    0.10000000
138    1    0.0    73.81829000    2.10909400    0.10000000
139    1    0.0    71.70919600    2.10909400    2.20909400
140    1    0.0    73.81829000    0.00000000    2.20909400
141    2    0.0    73.81829000    0.00000000    0.10000000
142    2    0.0    71.70919600    2.10909400    0.10000000
143    2    0.0    71.70919600    0.00000000    2.20909400
144    2    0.0    73.81829000    2.10909400    2.20909400
145    1    0.0    0.00000000    4.21818800    0.10000000
146    1    0.0    2.10909400    6.32728200    0.10000000
147    1    0.0    0.00000000    6.32728200    2.20909400
148    1    0.0    2.10909400    4.21818800    2.20909400
149    2    0.0    2.10909400    4.21818800    0.10000000
150    2    0.0    0.00000000    6.32728200    0.10000000
151    2    0.0    0.00000000    4.21818800    2.20909400
152    2    0.0    2.10909400    6.32728200    2.20909400
153    1    0.0    4.21818800    4.21818800    0.10000000
154    1    0.0    6.32728200    6.32728200    0.10000000
155    1    0.0    4.21818800    6.32728200    2.20909400
156    1    0.0    6.32728200    4.21818800    2.20909400
157    2    0.0    6.32728200    4.21818800    0.10000000
158    2    0.0    4.21818800    6.32728200    0.10000000
159    2    0.0    4.21818800    4.21818800    2.20909400
160    2    0.0    6.32728200    6.32728200    2.20909400
161    1    0.0    8.43637600    4.21818800    0.10000000
162    1    0.0    10.54547000    6.32728200    0.10000000
163    1    0.0    8.43637600    6.32728200    2.20909400
164    1    0.0    10.54547000    4.21818800    2.20909400
165    2    0.0    10.54547000    4.21818800    0.10000000
166    2    0.0    8.43637600    6.32728200    0.10000000
167    2    0.0    8.43637600    4.21818800    2.20909400
168    2    0.0    10.54547000    6.32728200    2.20909400
169    1    0.0    12.65456400    4.21818800    0.10000000
170    1    0.0    14.76365800    6.32728200    0.10000000
171    1    0.0    12.65456400    6.32728200    2.20909400
172    1    0.0    14.76365800    4.21818800    2.20909400
173    2    0.0    14.76365800    4.21818800    0.10000000
174    2    0.0    12.65456400    6.32728200    0.10000000
175    2    0.0    12.65456400    4.21818800    2.20909400
176    2    0.0    14.76365800    6.32728200    2.20909400
177    1    0.0    16.87275200    4.21818800    0.10000000
178    1    0.0    18.98184600    6.32728200    0.10000000
179    1    0.0    16.87275200    6.32728200    2.20909400
180    1    0.0    18.98184600    4.21818800    2.20909400
181    2    0.0    18.98184600    4.21818800    0.10000000
182    2    0.0    16.87275200    6.32728200    0.10000000
183    2    0.0    16.87275200    4.21818800    2.20909400
184    2    0.0    18.98184600    6.32728200    2.20909400
185    1    0.0    21.09094000    4.21818800    0.10000000
186    1    0.0    23.20003400    6.32728200    0.10000000
187    1    0.0    21.09094000    6.32728200    2.20909400
188    1    0.0    23.20003400    4.21818800    2.20909400
189    2    0.0    23.20003400    4.21818800    0.10000000
190    2    0.0    21.09094000    6.32728200    0.10000000
191    2    0.0    21.09094000    4.21818800    2.20909400
192    2    0.0    23.20003400    6.32728200    2.20909400
193    1    0.0    25.30912800    4.21818800    0.10000000
194    1    0.0    27.41822200    6.32728200    0.10000000
195    1    0.0    25.30912800    6.32728200    2.20909400
196    1    0.0    27.41822200    4.21818800    2.20909400
197    2    0.0    27.41822200    4.21818800    0.10000000
198    2    0.0    25.30912800    6.32728200    0.10000000
199    2    0.0    25.30912800    4.21818800    2.20909400
200    2    0.0    27.41822200    6.32728200    2.20909400
201    1    0.0    29.52731600    4.21818800    0.10000000
202    1    0.0    31.63641000    6.32728200    0.10000000
203    1    0.0    29.52731600    6.32728200    2.20909400
204    1    0.0    31.63641000    4.21818800    2.20909400
205    2    0.0    31.63641000    4.21818800    0.10000000
206    2    0.0    29.52731600    6.32728200    0.10000000
207    2    0.0    29.52731600    4.21818800    2.20909400
208    2    0.0    31.63641000    6.32728200    2.20909400
209    1    0.0    33.74550400    4.21818800    0.10000000
210    1    0.0    35.85459800    6.32728200    0.10000000
211    1    0.0    33.74550400    6.32728200    2.20909400
212    1    0.0    35.85459800    4.21818800    2.20909400
213    2    0.0    35.85459800    4.21818800    0.10000000
214    2    0.0    33.74550400    6.32728200    0.10000000
215    2    0.0    33.74550400    4.21818800    2.20909400
216    2    0.0    35.85459800    6.32728200    2.20909400
217    1    0.0    37.96369200    4.21818800    0.10000000
218    1    0.0    40.07278600    6.32728200    0.10000000
219    1    0.0    37.96369200    6.32728200    2.20909400
220    1    0.0    40.07278600    4.21818800    2.20909400
221    2    0.0    40.07278600    4.21818800    0.10000000
222    2    0.0    37.96369200    6.32728200    0.10000000
223    2    0.0    37.96369200    4.21818800    2.20909400
224    2    0.0    40.07278600    6.32728200    2.20909400
225    1    0.0    42.18188000    4.21818800    0.10000000
226    1    0.0    44.29097400    6.32728200    0.10000000
227    1    0.0    42.18188000    6.32728200    2.20909400
228    1    0.0    44.29097400    4.21818800    2.20909400
229    2    0.0    44.29097400    4.21818800    0.10000000
230    2    0.0    42.18188000    6.32728200    0.10000000
231    2    0.0    42.18188000    4.21818800    2.20909400
232    2    0.0    44.29097400    6.32728200    2.20909400
233    1    0.0    46.40006800    4.21818800    0.10000000
234    1    0.0    48.50916200    6.32728200    0.10000000
235    1    0.0    46.40006800    6.32728200    2.20909400
236    1    0.0    48.50916200    4.21818800    2.20909400
237    2    0.0    48.50916200    4.21818800    0.10000000
238    2    0.0    46.40006800    6.32728200    0.10000000
239    2    0.0    46.40006800    4.21818800    2.20909400
240    2    0.0    48.50916200    6.32728200    2.20909400
241    1    0.0    50.61825600    4.21818800    0.10000000
242    1    0.0    52.72735000    6.32728200    0.10000000
243    1    0.0    50.61825600    6.32728200    2.20909400
244    1    0.0    52.72735000    4.21818800    2.20909400
245    2    0.0    52.72735000    4.21818800    0.10000000
246    2    0.0    50.61825600    6.32728200    0.10000000
247    2    0.0    50.61825600    4.21818800    2.20909400
248    2    0.0    52.72735000    6.32728200    2.20909400
249    1    0.0    54.83644400    4.21818800    0.10000000
250    1    0.0    56.94553800    6.32728200    0.10000000
251    1    0.0    54.83644400    6.32728200    2.20909400
252    1    0.0    56.94553800    4.21818800    2.20909400
253    2    0.0    56.94553800    4.21818800    0.10000000
254    2    0.0    54.83644400    6.32728200    0.10000000
255    2    0.0    54.83644400    4.21818800    2.20909400
256    2    0.0    56.94553800    6.32728200    2.20909400
257    1    0.0    59.05463200    4.21818800    0.10000000
258    1    0.0    61.16372600    6.32728200    0.10000000
259    1    0.0    59.05463200    6.32728200    2.20909400
260    1    0.0    61.16372600    4.21818800    2.20909400
261    2    0.0    61.16372600    4.21818800    0.10000000
262    2    0.0    59.05463200    6.32728200    0.10000000
263    2    0.0    59.05463200    4.21818800    2.20909400
264    2    0.0    61.16372600    6.32728200    2.20909400
265    1    0.0    63.27282000    4.21818800    0.10000000
266    1    0.0    65.38191400    6.32728200    0.10000000
267    1    0.0    63.27282000    6.32728200    2.20909400
268    1    0.0    65.38191400    4.21818800    2.20909400
269    2    0.0    65.38191400    4.21818800    0.10000000
270    2    0.0    63.27282000    6.32728200    0.10000000
271    2    0.0    63.27282000    4.21818800    2.20909400
272    2    0.0    65.38191400    6.32728200    2.20909400
273    1    0.0    67.49100800    4.21818800    0.10000000
274    1    0.0    69.60010200    6.32728200    0.10000000
275    1    0.0    67.49100800    6.32728200    2.20909400
276    1    0.0    69.60010200    4.21818800    2.20909400
277    2    0.0    69.60010200    4.21818800    0.10000000
278    2    0.0    67.49100800    6.32728200    0.10000000
279    2    0.0    67.49100800    4.21818800    2.20909400
280    2    0.0    69.60010200    6.32728200    2.20909400
281    1    0.0    71.70919600    4.21818800    0.10000000
282    1    0.0    73.81829000    6.32728200    0.10000000
283    1    0.0    71.70919600    6.32728200    2.20909400
284    1    0.0    73.81829000    4.21818800    2.20909400
285    2    0.0    73.81829000    4.21818800    0.10000000
286    2    0.0    71.70919600    6.32728200    0.10000000
287    2    0.0    71.70919600    4.21818800    2.20909400
288    2    0.0    73.81829000    6.32728200    2.20909400
289    1    0.0    0.00000000    8.43637600    0.10000000
290    1    0.0    2.10909400    10.54547000    0.10000000
291    1    0.0    0.00000000    10.54547000    2.20909400
292    1    0.0    2.10909400    8.43637600    2.20909400
293    2    0.0    2.10909400    8.43637600    0.10000000
294    2    0.0    0.00000000    10.54547000    0.10000000
295    2    0.0    0.00000000    8.43637600    2.20909400
296    2    0.0    2.10909400    10.54547000    2.20909400
297    1    0.0    4.21818800    8.43637600    0.10000000
298    1    0.0    6.32728200    10.54547000    0.10000000
299    1    0.0    4.21818800    10.54547000    2.20909400
300    1    0.0    6.32728200    8.43637600    2.20909400
301    2    0.0    6.32728200    8.43637600    0.10000000
302    2    0.0    4.21818800    10.54547000    0.10000000
303    2    0.0    4.21818800    8.43637600    2.20909400
304    2    0.0    6.32728200    10.54547000    2.20909400
305    1    0.0    8.43637600    8.43637600    0.10000000
306    1    0.0    10.54547000    10.54547000    0.10000000
307    1    0.0    8.43637600    10.54547000    2.20909400
308    1    0.0    10.54547000    8.43637600    2.20909400
309    2    0.0    10.54547000    8.43637600    0.10000000
310    2    0.0    8.43637600    10.54547000    0.10000000
311    2    0.0    8.43637600    8.43637600    2.20909400
312    2    0.0    10.54547000    10.54547000    2.20909400
313    1    0.0    12.65456400    8.43637600    0.10000000
314    1    0.0    14.76365800    10.54547000    0.10000000
315    1    0.0    12.65456400    10.54547000    2.20909400
316    1    0.0    14.76365800    8.43637600    2.20909400
317    2    0.0    14.76365800    8.43637600    0.10000000
318    2    0.0    12.65456400    10.54547000    0.10000000
319    2    0.0    12.65456400    8.43637600    2.20909400
320    2    0.0    14.76365800    10.54547000    2.20909400
321    1    0.0    16.87275200    8.43637600    0.10000000
322    1    0.0    18.98184600    10.54547000    0.10000000
323    1    0.0    16.87275200    10.54547000    2.20909400
324    1    0.0    18.98184600    8.43637600    2.20909400
325    2    0.0    18.98184600    8.43637600    0.10000000
326    2    0.0    16.87275200    10.54547000    0.10000000
327    2    0.0    16.87275200    8.43637600    2.20909400
328    2    0.0    18.98184600    10.54547000    2.20909400
329    1    0.0    21.09094000    8.43637600    0.10000000
330    1    0.0    23.20003400    10.54547000    0.10000000
331    1    0.0    21.09094000    10.54547000    2.20909400
332    1    0.0    23.20003400    8.43637600    2.20909400
333    2    0.0    23.20003400    8.43637600    0.10000000
334    2    0.0    21.09094000    10.54547000    0.10000000
335    2    0.0    21.09094000    8.43637600    2.20909400
336    2    0.0    23.20003400    10.54547000    2.20909400
337    1    0.0    25.30912800    8.43637600    0.10000000
338    1    0.0    27.41822200    10.54547000    0.10000000
339    1    0.0    25.30912800    10.54547000    2.20909400
340    1    0.0    27.41822200    8.43637600    2.20909400
341    2    0.0    27.41822200    8.43637600    0.10000000
342    2    0.0    25.30912800    10.54547000    0.10000000
343    2    0.0    25.30912800    8.43637600    2.20909400
344    2    0.0    27.41822200    10.54547000    2.20909400
345    1    0.0    29.52731600    8.43637600    0.10000000
346    1    0.0    31.63641000    10.54547000    0.10000000
347    1    0.0    29.52731600    10.54547000    2.20909400
348    1    0.0    31.63641000    8.43637600    2.20909400
349    2    0.0    31.63641000    8.43637600    0.10000000
350    2    0.0    29.52731600    10.54547000    0.10000000
351    2    0.0    29.52731600    8.43637600    2.20909400
352    2    0.0    31.63641000    10.54547000    2.20909400
353    1    0.0    33.74550400    8.43637600    0.10000000
354    1    0.0    35.85459800    10.54547000    0.10000000
355    1    0.0    33.74550400    10.54547000    2.20909400
356    1    0.0    35.85459800    8.43637600    2.20909400
357    2    0.0    35.85459800    8.43637600    0.10000000
358    2    0.0    33.74550400    10.54547000    0.10000000
359    2    0.0    33.74550400    8.43637600    2.20909400
360    2    0.0    35.85459800    10.54547000    2.20909400
361    1    0.0    37.96369200    8.43637600    0.10000000
362    1    0.0    40.07278600    10.54547000    0.10000000
363    1    0.0    37.96369200    10.54547000    2.20909400
364    1    0.0    40.07278600    8.43637600    2.20909400
365    2    0.0    40.07278600    8.43637600    0.10000000
366    2    0.0    37.96369200    10.54547000    0.10000000
367    2    0.0    37.96369200    8.43637600    2.20909400
368    2    0.0    40.07278600    10.54547000    2.20909400
369    1    0.0    42.18188000    8.43637600    0.10000000
370    1    0.0    44.29097400    10.54547000    0.10000000
371    1    0.0    42.18188000    10.54547000    2.20909400
372    1    0.0    44.29097400    8.43637600    2.20909400
373    2    0.0    44.29097400    8.43637600    0.10000000
374    2    0.0    42.18188000    10.54547000    0.10000000
375    2    0.0    42.18188000    8.43637600    2.20909400
376    2    0.0    44.29097400    10.54547000    2.20909400
377    1    0.0    46.40006800    8.43637600    0.10000000
378    1    0.0    48.50916200    10.54547000    0.10000000
379    1    0.0    46.40006800    10.54547000    2.20909400
380    1    0.0    48.50916200    8.43637600    2.20909400
381    2    0.0    48.50916200    8.43637600    0.10000000
382    2    0.0    46.40006800    10.54547000    0.10000000
383    2    0.0    46.40006800    8.43637600    2.20909400
384    2    0.0    48.50916200    10.54547000    2.20909400
385    1    0.0    50.61825600    8.43637600    0.10000000
386    1    0.0    52.72735000    10.54547000    0.10000000
387    1    0.0    50.61825600    10.54547000    2.20909400
388    1    0.0    52.72735000    8.43637600    2.20909400
389    2    0.0    52.72735000    8.43637600    0.10000000
390    2    0.0    50.61825600    10.54547000    0.10000000
391    2    0.0    50.61825600    8.43637600    2.20909400
392    2    0.0    52.72735000    10.54547000    2.20909400
393    1    0.0    54.83644400    8.43637600    0.10000000
394    1    0.0    56.94553800    10.54547000    0.10000000
395    1    0.0    54.83644400    10.54547000    2.20909400
396    1    0.0    56.94553800    8.43637600    2.20909400
397    2    0.0    56.94553800    8.43637600    0.10000000
398    2    0.0    54.83644400    10.54547000    0.10000000
399    2    0.0    54.83644400    8.43637600    2.20909400
400    2    0.0    56.94553800    10.54547000    2.20909400
401    1    0.0    59.05463200    8.43637600    0.10000000
402    1    0.0    61.16372600    10.54547000    0.10000000
403    1    0.0    59.05463200    10.54547000    2.20909400
404    1    0.0    61.16372600    8.43637600    2.20909400
405    2    0.0    61.16372600    8.43637600    0.10000000
406    2    0.0    59.05463200    10.54547000    0.10000000
407    2    0.0    59.05463200    8.43637600    2.20909400
408    2    0.0    61.16372600    10.54547000    2.20909400
409    1    0.0    63.27282000    8.43637600    0.10000000
410    1    0.0    65.38191400    10.54547000    0.10000000
411    1    0.0    63.27282000    10.54547000    2.20909400
412    1    0.0    65.38191400    8.43637600    2.20909400
413    2    0.0    65.38191400    8.43637600    0.10000000
414    2    0.0    63.27282000    10.54547000    0.10000000
415    2    0.0    63.27282000    8.43637600    2.20909400
416    2    0.0    65.38191400    10.54547000    2.20909400
417    1    0.0    67.49100800    8.43637600    0.10000000
418    1    0.0    69.60010200    10.54547000    0.10000000
419    1    0.0    67.49100800    10.54547000    2.20909400
420    1    0.0    69.60010200    8.43637600    2.20909400
421    2    0.0    69.60010200    8.43637600    0.10000000
422    2    0.0    67.49100800    10.54547000    0.10000000
423    2    0.0    67.49100800    8.43637600    2.20909400
424    2    0.0    69.60010200    10.54547000    2.20909400
425    1    0.0    71.70919600    8.43637600    0.10000000
426    1    0.0    73.81829000    10.54547000    0.10000000
427    1    0.0    71.70919600    10.54547000    2.20909400
428    1    0.0    73.81829000    8.43637600    2.20909400
429    2    0.0    73.81829000    8.43637600    0.10000000
430    2    0.0    71.70919600    10.54547000    0.10000000
431    2    0.0    71.70919600    8.43637600    2.20909400
432    2    0.0    73.81829000    10.54547000    2.20909400
433    1    0.0    0.00000000    12.65456400    0.10000000
434    1    0.0    2.10909400    14.76365800    0.10000000
435    1    0.0    0.00000000    14.76365800    2.20909400
436    1    0.0    2.10909400    12.65456400    2.20909400
437    2    0.0    2.10909400    12.65456400    0.10000000
438    2    0.0    0.00000000    14.76365800    0.10000000
439    2    0.0    0.00000000    12.65456400    2.20909400
440    2    0.0    2.10909400    14.76365800    2.20909400
441    1    0.0    4.21818800    12.65456400    0.10000000
442    1    0.0    6.32728200    14.76365800    0.10000000
443    1    0.0    4.21818800    14.76365800    2.20909400
444    1    0.0    6.32728200    12.65456400    2.20909400
445    2    0.0    6.32728200    12.65456400    0.10000000
446    2    0.0    4.21818800    14.76365800    0.10000000
447    2    0.0    4.21818800    12.65456400    2.20909400
448    2    0.0    6.32728200    14.76365800    2.20909400
449    1    0.0    8.43637600    12.65456400    0.10000000
450    1    0.0    10.54547000    14.76365800    0.10000000
451    1    0.0    8.43637600    14.76365800    2.20909400
452    1    0.0    10.54547000    12.65456400    2.20909400
453    2    0.0    10.54547000    12.65456400    0.10000000
454    2    0.0    8.43637600    14.76365800    0.10000000
455    2    0.0    8.43637600    12.65456400    2.20909400
456    2    0.0    10.54547000    14.76365800    2.20909400
457    1    0.0    12.65456400    12.65456400    0.10000000
458    1    0.0    14.76365800    14.76365800    0.10000000
459    1    0.0    12.65456400    14.76365800    2.20909400
460    1    0.0    14.76365800    12.65456400    2.20909400
461    2    0.0    14.76365800    12.65456400    0.10000000
462    2    0.0    12.65456400    14.76365800    0.10000000
463    2    0.0    12.65456400    12.65456400    2.20909400
464    2    0.0    14.76365800    14.76365800    2.20909400
465    1    0.0    16.87275200    12.65456400    0.10000000
466    1    0.0    18.98184600    14.76365800    0.10000000
467    1    0.0    16.87275200    14.76365800    2.20909400
468    1    0.0    18.98184600    12.65456400    2.20909400
469    2    0.0    18.98184600    12.65456400    0.10000000
470    2    0.0    16.87275200    14.76365800    0.10000000
471    2    0.0    16.87275200    12.65456400    2.20909400
472    2    0.0    18.98184600    14.76365800    2.20909400
473    1    0.0    21.09094000    12.65456400    0.10000000
474    1    0.0    23.20003400    14.76365800    0.10000000
475    1    0.0    21.09094000    14.76365800    2.20909400
476    1    0.0    23.20003400    12.65456400    2.20909400
477    2    0.0    23.20003400    12.65456400    0.10000000
478    2    0.0    21.09094000    14.76365800    0.10000000
479    2    0.0    21.09094000    12.65456400    2.20909400
480    2    0.0    23.20003400    14.76365800    2.20909400
481    1    0.0    25.30912800    12.65456400    0.10000000
482    1    0.0    27.41822200    14.76365800    0.10000000
483    1    0.0    25.30912800    14.76365800    2.20909400
484    1    0.0    27.41822200    12.65456400    2.20909400
485    2    0.0    27.41822200    12.65456400    0.10000000
486    2    0.0    25.30912800    14.76365800    0.10000000
487    2    0.0    25.30912800    12.65456400    2.20909400
488    2    0.0    27.41822200    14.76365800    2.20909400
489    1    0.0    29.52731600    12.65456400    0.10000000
490    1    0.0    31.63641000    14.76365800    0.10000000
491    1    0.0    29.52731600    14.76365800    2.20909400
492    1    0.0    31.63641000    12.65456400    2.20909400
493    2    0.0    31.63641000    12.65456400    0.10000000
494    2    0.0    29.52731600    14.76365800    0.10000000
495    2    0.0    29.52731600    12.65456400    2.20909400
496    2    0.0    31.63641000    14.76365800    2.20909400