 # Fcc Al oriented X=[100], Y=[010], Z=[001].
 
          48  atoms
           1  atom types
 
      0.00000000       8.04000000  xlo xhi
      0.00000000       8.04000000  ylo yhi
      0.00000000      12.06000000  zlo zhi
 
Atoms
 
         1    1        0.00000000       0.00000000       0.00000000
         2    1        2.01000000       2.01000000       0.00000000
         3    1        0.00000000       2.01000000       2.01000000
         4    1        2.01000000       0.00000000       2.01000000
         5    1        4.02000000       0.00000000       0.00000000
         6    1        6.03000000       2.01000000       0.00000000
         7    1        4.02000000       2.01000000       2.01000000
         8    1        6.03000000       0.00000000       2.01000000
         9    1        0.00000000       4.02000000       0.00000000
        10    1        2.01000000       6.03000000       0.00000000
        11    1        0.00000000       6.03000000       2.01000000
        12    1        2.01000000       4.02000000       2.01000000
        13    1        4.02000000       4.02000000       0.00000000
        14    1        6.03000000       6.03000000       0.00000000
        15    1        4.02000000       6.03000000       2.01000000
        16    1        6.03000000       4.02000000       2.01000000
        17    1        0.00000000       0.00000000       4.02000000
        18    1        2.01000000       2.01000000       4.02000000
        19    1        0.00000000       2.01000000       6.03000000
        20    1        2.01000000       0.00000000       6.03000000
        21    1        4.02000000       0.00000000       4.02000000
        22    1        6.03000000       2.01000000       4.02000000
        23    1        4.02000000       2.01000000       6.03000000
        24    1        6.03000000       0.00000000       6.03000000
        25    1        0.00000000       4.02000000       4.02000000
        26    1        2.01000000       6.03000000       4.02000000
        27    1        0.00000000       6.03000000       6.03000000
        28    1        2.01000000       4.02000000       6.03000000
        29    1        4.02000000       4.02000000       4.02000000
        30    1        6.03000000       6.03000000       4.02000000
        31    1        4.02000000       6.03000000       6.03000000
        32    1        6.03000000       4.02000000       6.03000000
        33    1        0.00000000       0.00000000       8.04000000
        34    1        2.01000000       2.01000000       8.04000000
        35    1        0.00000000       2.01000000      10.05000000
        36    1        2.01000000       0.00000000      10.05000000
        37    1        4.02000000       0.00000000       8.04000000
        38    1        6.03000000       2.01000000       8.04000000
        39    1        4.02000000       2.01000000      10.05000000
        40    1        6.03000000       0.00000000      10.05000000
        41    1        0.00000000       4.02000000       8.04000000
        42    1        2.01000000       6.03000000       8.04000000
        43    1        0.00000000       6.03000000      10.05000000
        44    1        2.01000000       4.02000000      10.05000000
        45    1        4.02000000       4.02000000       8.04000000
        46    1        6.03000000       6.03000000       8.04000000
        47    1        4.02000000       6.03000000      10.05000000
        48    1        6.03000000       4.02000000      10.05000000
